                         Program Version 5.0.4 -  RELEASE  -
|  1> ! SARC-ZORA-TZVPP ZORA DLPNO-CCSD(T) Def2-TZVPP/C TightSCF TightPNO
|  2> %pal nprocs 8
|  3>     end
|  4> %Maxcore 15000.00
|  5> %basis
|  6>         NewGTO C "ma-ZORA-def2-TZVPP" end
|  7>         NewGTO N "ma-ZORA-def2-TZVPP" end
|  8>         NewGTO S "ma-ZORA-def2-TZVPP" end
|  9>         NewGTO O "ma-ZORA-def2-TZVPP" end
| 10>         NewGTO H "ma-ZORA-def2-TZVPP" end
| 11> 	NewGTO Cl "ma-ZORA-def2-TZVPP" end
| 12> 	NewGTO Br "ma-ZORA-def2-TZVPP" end
| 13> end
| 14> * xyzfile 0 1 1ABisopooh1w-1010000_7_18-str7-str7.xyz
| 15>
| 16>
| 17>                          ****END OF INPUT****

CARTESIAN COORDINATES (ANGSTROEM)
---------------------------------
  O     -3.045368   -0.119813   -0.504801
  H     -3.368810   -0.877355   -0.996837
  H     -2.294985    0.232628   -1.016985
  C      2.411701    0.149225   -1.426615
  C      1.718507   -0.544176   -0.532995
  H      3.152360   -0.334857   -2.051441
  H      2.288543    1.219327   -1.558549
  H      1.884116   -1.612382   -0.427225
  C      0.696437    0.017764    0.429129
  C      1.351283    0.344165    1.770140
  C     -0.010288    1.253315   -0.127043
  O     -0.223148   -1.079812    0.561276
  H      0.595525    0.654049    2.491209
  H      1.861287   -0.539000    2.156499
  H      2.083942    1.143211    1.645168
  O     -1.232295   -0.742311    1.509674
  H     -1.998195   -0.589389    0.917987
  O     -0.658347    1.015793   -1.373255
  H     -0.784834    1.565835    0.572159
  H      0.709831    2.072558   -0.220802
  H     -0.040287    0.543684   -1.940814

 Total Charge           Charge          ....    0
 Multiplicity           Mult            ....    1
 Number of Electrons    NEL             ....   74
 Basis Dimension        Dim             ....  492

ORBITAL ENERGIES
----------------

  NO   OCC          E(Eh)            E(eV)
   0   2.0000     -20.643776      -561.7457
   1   2.0000     -20.629814      -561.3658
   2   2.0000     -20.611248      -560.8606
   3   2.0000     -20.592952      -560.3627
   4   2.0000     -11.313738      -307.8625
   5   2.0000     -11.298036      -307.4352
   6   2.0000     -11.262767      -306.4755
   7   2.0000     -11.253410      -306.2208
   8   2.0000     -11.231968      -305.6374
   9   2.0000      -1.471808       -40.0499
  10   2.0000      -1.386013       -37.7153
  11   2.0000      -1.350221       -36.7414
  12   2.0000      -1.220621       -33.2148
  13   2.0000      -1.085785       -29.5457
  14   2.0000      -1.017806       -27.6959
  15   2.0000      -0.938543       -25.5390
  16   2.0000      -0.854909       -23.2632
  17   2.0000      -0.767285       -20.8789
  18   2.0000      -0.737395       -20.0655
  19   2.0000      -0.709892       -19.3171
  20   2.0000      -0.702053       -19.1038
  21   2.0000      -0.676838       -18.4177
  22   2.0000      -0.654879       -17.8202
  23   2.0000      -0.626450       -17.0466
  24   2.0000      -0.612897       -16.6778
  25   2.0000      -0.596424       -16.2295
  26   2.0000      -0.579906       -15.7800
  27   2.0000      -0.567956       -15.4549
  28   2.0000      -0.563825       -15.3425
  29   2.0000      -0.551366       -15.0034
  30   2.0000      -0.526820       -14.3355
  31   2.0000      -0.507560       -13.8114
  32   2.0000      -0.488379       -13.2895
  33   2.0000      -0.475868       -12.9490
  34   2.0000      -0.464017       -12.6266
  35   2.0000      -0.435935       -11.8624
  36   2.0000      -0.389922       -10.6103
  37   0.0000       0.038374         1.0442
  38   0.0000       0.051894         1.4121
  39   0.0000       0.060765         1.6535
  40   0.0000       0.067761         1.8439
  41   0.0000       0.079532         2.1642

MULLIKEN ATOMIC CHARGES
-----------------------
   0 O :   -0.532251
   1 H :    0.239120
   2 H :    0.300704
   3 C :   -0.347553
   4 C :   -0.145741
   5 H :    0.097287
   6 H :    0.094957
   7 H :    0.102025
   8 C :    0.588046
   9 C :   -0.381586
  10 C :    0.065259
  11 O :   -0.312136
  12 H :    0.104969
  13 H :    0.090422
  14 H :    0.078632
  15 O :   -0.259040
  16 H :    0.317622
  17 O :   -0.512292
  18 H :    0.098256
  19 H :    0.068557
  20 H :    0.244742
Sum of atomic charges:   -0.0000000

LOEWDIN ATOMIC CHARGES
----------------------
   0 O :    0.222802
   1 H :   -0.094291
   2 H :   -0.099626
   3 C :   -0.013609
   4 C :   -0.043804
   5 H :    0.030997
   6 H :    0.039995
   7 H :    0.070461
   8 C :   -0.322563
   9 C :    0.001737
  10 C :   -0.091128
  11 O :   -0.018713
  12 H :    0.055710
  13 H :    0.055601
  14 H :    0.048198
  15 O :    0.083629
  16 H :   -0.116965
  17 O :    0.150196
  18 H :    0.073748
  19 H :    0.055821
  20 H :   -0.088194

  Mayer bond orders larger than 0.100000
B(  0-O ,  1-H ) :   0.9890 B(  0-O ,  2-H ) :   0.9262 B(  3-C ,  4-C ) :   1.8928
B(  3-C ,  5-H ) :   1.0666 B(  3-C ,  6-H ) :   1.0158 B(  3-C ,  8-C ) :  -0.1318
B(  4-C ,  7-H ) :   1.0459 B(  4-C ,  8-C ) :   0.8294 B(  4-C , 11-O ) :  -0.1082
B(  8-C ,  9-C ) :   0.8213 B(  8-C , 10-C ) :   0.8526 B(  8-C , 11-O ) :   1.1553
B(  9-C , 12-H ) :   1.0239 B(  9-C , 13-H ) :   1.0280 B(  9-C , 14-H ) :   1.0127
B( 10-C , 17-O ) :   0.8064 B( 10-C , 18-H ) :   1.0530 B( 10-C , 19-H ) :   1.0174
B( 11-O , 15-O ) :   0.7546 B( 15-O , 16-H ) :   0.9083 B( 17-O , 20-H ) :   0.9570

E(0)                                       ...   -496.330891850
E(0)                                       ...   -496.330891850
E(CORR)(strong-pairs)                      ...     -1.890616984
E(CORR)(weak-pairs)                        ...     -0.002121293
E(CORR)(corrected)                         ...     -1.892738277
E(TOT)                                     ...   -498.223630126
E(CCSD(T))                                 ...   -498.297863569
FINAL SINGLE POINT ENERGY      -498.297863568717

DIPOLE MOMENT
-------------
                                X             Y             Z
Electronic contribution:     -3.20260      -2.76604      -0.10888
Nuclear contribution   :      4.12024       2.97145      -0.73319
                        -----------------------------------------
Total Dipole Moment    :      0.91765       0.20541      -0.84207
                        -----------------------------------------
Magnitude (a.u.)       :      1.26228
Magnitude (Debye)      :      3.20847

Rotational constants in cm-1:     0.066905     0.039170     0.030635
Rotational constants in MHz :  2005.759640  1174.290325   918.400944

                             ****ORCA TERMINATED NORMALLY****
TOTAL RUN TIME: 0 days 0 hours 22 minutes 52 seconds 528 msec
