                         Program Version 5.0.4 -  RELEASE  -
|  1> ! aug-cc-pVTZ wb97X-D3BJ FREQ
|  2> %pal nprocs 4
|  3>     end
|  4> %Maxcore 3000.00
|  5> %basis
|  6> 	NewGTO I "aug-cc-pVTZ-PP" end
|  7> 	NewECP I "SK-MCDHF-RSC" end
|  8> end
|  9> %geom
| 10>         maxIter 500
| 11> end
| 12> * xyzfile 0 1 1ABisopooh1w-1010000_7_18-str7-str7.xyz
| 13>
| 14>
| 15>                          ****END OF INPUT****

CARTESIAN COORDINATES (ANGSTROEM)
---------------------------------
  O     -3.045368   -0.119813   -0.504801
  H     -3.368810   -0.877355   -0.996837
  H     -2.294985    0.232628   -1.016985
  C      2.411701    0.149225   -1.426615
  C      1.718507   -0.544176   -0.532995
  H      3.152360   -0.334857   -2.051441
  H      2.288543    1.219327   -1.558549
  H      1.884116   -1.612382   -0.427225
  C      0.696437    0.017764    0.429129
  C      1.351283    0.344165    1.770140
  C     -0.010288    1.253315   -0.127043
  O     -0.223148   -1.079812    0.561276
  H      0.595525    0.654049    2.491209
  H      1.861287   -0.539000    2.156499
  H      2.083942    1.143211    1.645168
  O     -1.232295   -0.742311    1.509674
  H     -1.998195   -0.589389    0.917987
  O     -0.658347    1.015793   -1.373255
  H     -0.784834    1.565835    0.572159
  H      0.709831    2.072558   -0.220802
  H     -0.040287    0.543684   -1.940814

 Total Charge           Charge          ....    0
 Multiplicity           Mult            ....    1
 Number of Electrons    NEL             ....   74
 Basis Dimension        Dim             ....  690

ORBITAL ENERGIES
----------------

  NO   OCC          E(Eh)            E(eV)
   0   2.0000     -19.271226      -524.3967
   1   2.0000     -19.252718      -523.8931
   2   2.0000     -19.243005      -523.6288
   3   2.0000     -19.222491      -523.0706
   4   2.0000     -10.349020      -281.6112
   5   2.0000     -10.332881      -281.1720
   6   2.0000     -10.299903      -280.2746
   7   2.0000     -10.290613      -280.0218
   8   2.0000     -10.270530      -279.4753
   9   2.0000      -1.253888       -34.1200
  10   2.0000      -1.180448       -32.1216
  11   2.0000      -1.145758       -31.1777
  12   2.0000      -1.042928       -28.3795
  13   2.0000      -0.940185       -25.5837
  14   2.0000      -0.888130       -24.1672
  15   2.0000      -0.825487       -22.4626
  16   2.0000      -0.761506       -20.7216
  17   2.0000      -0.690662       -18.7939
  18   2.0000      -0.666162       -18.1272
  19   2.0000      -0.641809       -17.4645
  20   2.0000      -0.626961       -17.0605
  21   2.0000      -0.612267       -16.6606
  22   2.0000      -0.596518       -16.2321
  23   2.0000      -0.564642       -15.3647
  24   2.0000      -0.555101       -15.1051
  25   2.0000      -0.534631       -14.5480
  26   2.0000      -0.519258       -14.1297
  27   2.0000      -0.510017       -13.8783
  28   2.0000      -0.507648       -13.8138
  29   2.0000      -0.501953       -13.6588
  30   2.0000      -0.472617       -12.8606
  31   2.0000      -0.444863       -12.1053
  32   2.0000      -0.436610       -11.8808
  33   2.0000      -0.412932       -11.2364
  34   2.0000      -0.403608       -10.9827
  35   2.0000      -0.387318       -10.5395
  36   2.0000      -0.370469       -10.0810
  37   0.0000       0.022905         0.6233
  38   0.0000       0.031983         0.8703
  39   0.0000       0.034513         0.9392
  40   0.0000       0.036712         0.9990
  41   0.0000       0.046846         1.2747

MULLIKEN ATOMIC CHARGES
-----------------------
   0 O :   -0.447501
   1 H :    0.139669
   2 H :    0.220442
   3 C :   -0.963177
   4 C :   -0.305470
   5 H :    0.360048
   6 H :    0.301075
   7 H :    0.342785
   8 C :    1.633748
   9 C :   -1.168432
  10 C :   -0.488577
  11 O :   -0.525016
  12 H :    0.266863
  13 H :    0.287442
  14 H :    0.271901
  15 O :   -0.443001
  16 H :    0.287736
  17 O :   -0.508951
  18 H :    0.453636
  19 H :    0.174589
  20 H :    0.110193
Sum of atomic charges:    0.0000000

LOEWDIN ATOMIC CHARGES
----------------------
   0 O :    1.119419
   1 H :   -0.457813
   2 H :   -0.640362
   3 C :    0.531659
   4 C :    0.164892
   5 H :   -0.205853
   6 H :   -0.210720
   7 H :   -0.172604
   8 C :   -0.651180
   9 C :    0.572630
  10 C :    0.032911
  11 O :    0.399599
  12 H :   -0.175128
  13 H :   -0.154118
  14 H :   -0.157749
  15 O :    0.634657
  16 H :   -0.716607
  17 O :    0.902691
  18 H :   -0.164582
  19 H :   -0.155706
  20 H :   -0.496036

  Mayer bond orders larger than 0.100000
B(  0-O ,  1-H ) :   1.0808 B(  0-O ,  2-H ) :   0.8855 B(  2-H , 17-O ) :   0.1189
B(  3-C ,  4-C ) :   1.1588 B(  3-C ,  5-H ) :   0.7926 B(  3-C ,  6-H ) :   1.0474
B(  4-C ,  7-H ) :   0.8658 B(  4-C ,  8-C ) :   0.6745 B(  8-C ,  9-C ) :   0.5658
B(  8-C , 10-C ) :   0.8433 B(  8-C , 11-O ) :   0.2498 B(  8-C , 15-O ) :  -0.1018
B(  9-C , 10-C ) :   0.1156 B(  9-C , 11-O ) :   0.1105 B(  9-C , 12-H ) :   0.9778
B(  9-C , 13-H ) :   0.9610 B(  9-C , 14-H ) :   0.9589 B( 10-C , 11-O ) :   0.1672
B( 10-C , 17-O ) :   0.6091 B( 10-C , 18-H ) :   0.8191 B( 10-C , 19-H ) :   1.0678
B( 11-O , 15-O ) :   0.7091 B( 15-O , 16-H ) :   0.8733 B( 17-O , 20-H ) :   1.0352

Dispersion correction           -0.031281378
FINAL SINGLE POINT ENERGY      -498.900968083920

DIPOLE MOMENT
-------------
                                X             Y             Z
Electronic contribution:     -3.22853      -2.77590      -0.09492
Nuclear contribution   :      4.12024       2.97145      -0.73319
                        -----------------------------------------
Total Dipole Moment    :      0.89171       0.19555      -0.82811
                        -----------------------------------------
Magnitude (a.u.)       :      1.23254
Magnitude (Debye)      :      3.13287

Dispersion correction in the Hessian             ... done   (      1.4 sec)

VIBRATIONAL FREQUENCIES
-----------------------

Scaling factor for frequencies =  1.000000000  (already applied!)

   0:         0.00 cm**-1
   1:         0.00 cm**-1
   2:         0.00 cm**-1
   3:         0.00 cm**-1
   4:         0.00 cm**-1
   5:         0.00 cm**-1
   6:        54.65 cm**-1
   7:       108.84 cm**-1
   8:       124.76 cm**-1
   9:       143.61 cm**-1
  10:       198.92 cm**-1
  11:       207.24 cm**-1
  12:       232.49 cm**-1
  13:       243.20 cm**-1
  14:       268.36 cm**-1
  15:       288.55 cm**-1
  16:       315.45 cm**-1
  17:       327.88 cm**-1
  18:       369.36 cm**-1
  19:       383.92 cm**-1
  20:       441.35 cm**-1
  21:       461.47 cm**-1
  22:       537.64 cm**-1
  23:       581.50 cm**-1
  24:       656.76 cm**-1
  25:       710.38 cm**-1
  26:       777.38 cm**-1
  27:       809.38 cm**-1
  28:       891.85 cm**-1
  29:       944.58 cm**-1
  30:       987.46 cm**-1
  31:       991.20 cm**-1
  32:      1037.36 cm**-1
  33:      1060.52 cm**-1
  34:      1064.27 cm**-1
  35:      1095.98 cm**-1
  36:      1168.55 cm**-1
  37:      1177.44 cm**-1
  38:      1251.12 cm**-1
  39:      1327.89 cm**-1
  40:      1333.07 cm**-1
  41:      1365.78 cm**-1
  42:      1411.20 cm**-1
  43:      1438.43 cm**-1
  44:      1466.78 cm**-1
  45:      1491.81 cm**-1
  46:      1507.76 cm**-1
  47:      1523.65 cm**-1
  48:      1531.25 cm**-1
  49:      1666.64 cm**-1
  50:      1738.45 cm**-1
  51:      3061.72 cm**-1
  52:      3074.24 cm**-1
  53:      3147.85 cm**-1
  54:      3150.51 cm**-1
  55:      3161.46 cm**-1
  56:      3163.93 cm**-1
  57:      3185.35 cm**-1
  58:      3245.40 cm**-1
  59:      3509.97 cm**-1
  60:      3617.23 cm**-1
  61:      3825.78 cm**-1
  62:      3914.31 cm**-1

IR SPECTRUM
-----------

 Mode   freq       eps      Int      T**2         TX        TY        TZ
       cm**-1   L/(mol*cm) km/mol    a.u.
----------------------------------------------------------------------------
  6:     54.65   0.001406    7.10  0.008027  (-0.084769  0.026188 -0.012469)
  7:    108.84   0.000016    0.08  0.000044  ( 0.005769  0.002677  0.002005)
  8:    124.76   0.000173    0.87  0.000432  ( 0.003784 -0.000842 -0.020414)
  9:    143.61   0.000348    1.76  0.000757  ( 0.011795  0.013336 -0.020980)
 10:    198.92   0.000970    4.90  0.001522  (-0.008265  0.031034 -0.022159)
 11:    207.24   0.000393    1.98  0.000591  ( 0.008533 -0.011564  0.019616)
 12:    232.49   0.002651   13.40  0.003558  ( 0.008262 -0.032913  0.049057)
 13:    243.20   0.022343  112.91  0.028669  (-0.153470  0.017789 -0.069281)
 14:    268.36   0.000370    1.87  0.000431  ( 0.014898 -0.013199 -0.005863)
 15:    288.55   0.000850    4.30  0.000920  (-0.022005  0.001017 -0.020839)
 16:    315.45   0.000796    4.02  0.000788  ( 0.004631 -0.005944  0.027035)
 17:    327.88   0.000979    4.95  0.000932  ( 0.024011  0.009940 -0.016028)
 18:    369.36   0.000853    4.31  0.000721  ( 0.020344 -0.014459  0.009907)
 19:    383.92   0.002097   10.60  0.001704  ( 0.006494 -0.020925  0.034992)
 20:    441.35   0.000236    1.19  0.000167  (-0.010732 -0.003626  0.006202)
 21:    461.47   0.020699  104.61  0.013998  ( 0.065828  0.086614 -0.046501)
 22:    537.64   0.000686    3.47  0.000398  (-0.002902  0.019739 -0.000218)
 23:    581.50   0.000421    2.13  0.000226  ( 0.010491  0.004324 -0.009867)
 24:    656.76   0.037105  187.51  0.017631  ( 0.087796 -0.078041  0.061904)
 25:    710.38   0.002446   12.36  0.001074  ( 0.023165  0.001975  0.023105)
 26:    777.38   0.002892   14.61  0.001161  (-0.010067 -0.032525 -0.001302)
 27:    809.38   0.019914  100.64  0.007678  (-0.053745 -0.068900  0.006486)
 28:    891.85   0.001511    7.64  0.000529  (-0.005716 -0.022265  0.000549)
 29:    944.58   0.000410    2.07  0.000135  ( 0.000336 -0.006366  0.009739)
 30:    987.46   0.006836   34.55  0.002161  ( 0.032415  0.005065  0.032926)
 31:    991.20   0.004125   20.85  0.001299  (-0.019438  0.000632 -0.030340)
 32:   1037.36   0.000744    3.76  0.000224  ( 0.006394  0.006756 -0.011722)
 33:   1060.52   0.000734    3.71  0.000216  ( 0.012547 -0.004110 -0.006445)
 34:   1064.27   0.001146    5.79  0.000336  (-0.015206 -0.006786 -0.007667)
 35:   1095.98   0.021862  110.48  0.006225  ( 0.053287  0.011002  0.057135)
 36:   1168.55   0.006626   33.49  0.001770  ( 0.040173  0.012470 -0.000409)
 37:   1177.44   0.001790    9.04  0.000474  ( 0.021007 -0.000475  0.005729)
 38:   1251.12   0.005863   29.63  0.001462  ( 0.001226  0.021386 -0.031678)
 39:   1327.89   0.001888    9.54  0.000444  ( 0.004996  0.010518  0.017551)
 40:   1333.07   0.000740    3.74  0.000173  ( 0.000053 -0.007652  0.010705)
 41:   1365.78   0.004132   20.88  0.000944  (-0.028889  0.005156 -0.009109)
 42:   1411.20   0.001600    8.08  0.000354  ( 0.010523  0.007015  0.013921)
 43:   1438.43   0.007294   36.86  0.001582  ( 0.026889  0.005066  0.028873)
 44:   1466.78   0.003739   18.89  0.000795  (-0.024905 -0.011307  0.006877)
 45:   1491.81   0.000469    2.37  0.000098  (-0.002707  0.008572 -0.004164)
 46:   1507.76   0.000817    4.13  0.000169  ( 0.005199  0.005994 -0.010306)
 47:   1523.65   0.002751   13.90  0.000563  ( 0.000365 -0.020352  0.012210)
 48:   1531.25   0.008720   44.07  0.001777  ( 0.028981 -0.008788 -0.029325)
 49:   1666.64   0.009167   46.33  0.001716  (-0.006578 -0.016106 -0.037601)
 50:   1738.45   0.001043    5.27  0.000187  ( 0.005005  0.002660 -0.012456)
 51:   3061.72   0.005026   25.40  0.000512  (-0.013390 -0.017406 -0.005477)
 52:   3074.24   0.004266   21.56  0.000433  ( 0.013943  0.009177  0.012428)
 53:   3147.85   0.001174    5.94  0.000116  ( 0.004791 -0.009482 -0.001889)
 54:   3150.51   0.002435   12.31  0.000241  (-0.006737 -0.011557  0.007891)
 55:   3161.46   0.001166    5.89  0.000115  (-0.004446 -0.008110  0.005441)
 56:   3163.93   0.002320   11.72  0.000229  ( 0.012285 -0.006272 -0.006211)
 57:   3185.35   0.000317    1.60  0.000031  ( 0.003809 -0.004072  0.000132)
 58:   3245.40   0.001648    8.33  0.000158  (-0.007911  0.008704  0.004485)
 59:   3509.97   0.073355  370.71  0.006522  (-0.060859  0.018277 -0.049840)
 60:   3617.23   0.122175  617.42  0.010540  (-0.098595 -0.028485  0.002801)
 61:   3825.78   0.010594   53.54  0.000864  (-0.019652  0.015366  0.015550)
 62:   3914.31   0.017369   87.77  0.001385  (-0.026157 -0.025307 -0.007749)

--------------------------
THERMOCHEMISTRY AT 298.15K
--------------------------

Temperature         ... 298.15 K
Pressure            ... 1.00 atm
Total Mass          ... 136.15 AMU

Throughout the following assumptions are being made:
  (1) The electronic state is orbitally nondegenerate
  (2) There are no thermally accessible electronically excited states
  (3) Hindered rotations indicated by low frequency modes are not
      treated as such but are treated as vibrations and this may
      cause some error
  (4) All equations used are the standard statistical mechanics
      equations for an ideal gas
  (5) All vibrations are strictly harmonic

freq.      54.65  E(vib)   ...       0.52
freq.     108.84  E(vib)   ...       0.45
freq.     124.76  E(vib)   ...       0.43
freq.     143.61  E(vib)   ...       0.41
freq.     198.92  E(vib)   ...       0.35
freq.     207.24  E(vib)   ...       0.34
freq.     232.49  E(vib)   ...       0.32
freq.     243.20  E(vib)   ...       0.31
freq.     268.36  E(vib)   ...       0.29
freq.     288.55  E(vib)   ...       0.27
freq.     315.45  E(vib)   ...       0.25
freq.     327.88  E(vib)   ...       0.24
freq.     369.36  E(vib)   ...       0.21
freq.     383.92  E(vib)   ...       0.20
freq.     441.35  E(vib)   ...       0.17
freq.     461.47  E(vib)   ...       0.16
freq.     537.64  E(vib)   ...       0.12
freq.     581.50  E(vib)   ...       0.11
freq.     656.76  E(vib)   ...       0.08
freq.     710.38  E(vib)   ...       0.07
freq.     777.38  E(vib)   ...       0.05
freq.     809.38  E(vib)   ...       0.05
freq.     891.85  E(vib)   ...       0.03
freq.     944.58  E(vib)   ...       0.03
freq.     987.46  E(vib)   ...       0.02
freq.     991.20  E(vib)   ...       0.02
freq.    1037.36  E(vib)   ...       0.02
freq.    1060.52  E(vib)   ...       0.02
freq.    1064.27  E(vib)   ...       0.02
freq.    1095.98  E(vib)   ...       0.02
freq.    1168.55  E(vib)   ...       0.01
freq.    1177.44  E(vib)   ...       0.01
freq.    1251.12  E(vib)   ...       0.01
freq.    1327.89  E(vib)   ...       0.01
freq.    1333.07  E(vib)   ...       0.01
freq.    1365.78  E(vib)   ...       0.01
freq.    1411.20  E(vib)   ...       0.00
freq.    1438.43  E(vib)   ...       0.00
freq.    1466.78  E(vib)   ...       0.00
freq.    1491.81  E(vib)   ...       0.00
freq.    1507.76  E(vib)   ...       0.00
freq.    1523.65  E(vib)   ...       0.00
freq.    1531.25  E(vib)   ...       0.00
freq.    1666.64  E(vib)   ...       0.00
freq.    1738.45  E(vib)   ...       0.00
freq.    3061.72  E(vib)   ...       0.00
freq.    3074.24  E(vib)   ...       0.00
freq.    3147.85  E(vib)   ...       0.00
freq.    3150.51  E(vib)   ...       0.00
freq.    3161.46  E(vib)   ...       0.00
freq.    3163.93  E(vib)   ...       0.00
freq.    3185.35  E(vib)   ...       0.00
freq.    3245.40  E(vib)   ...       0.00
freq.    3509.97  E(vib)   ...       0.00
freq.    3617.23  E(vib)   ...       0.00
freq.    3825.78  E(vib)   ...       0.00
freq.    3914.31  E(vib)   ...       0.00

------------
INNER ENERGY
------------

The inner energy is: U= E(el) + E(ZPE) + E(vib) + E(rot) + E(trans)
    E(el)   - is the total energy from the electronic structure calculation
              = E(kin-el) + E(nuc-el) + E(el-el) + E(nuc-nuc)
    E(ZPE)  - the the zero temperature vibrational energy from the frequency calculation
    E(vib)  - the the finite temperature correction to E(ZPE) due to population
              of excited vibrational states
    E(rot)  - is the rotational thermal energy
    E(trans)- is the translational thermal energy

Summary of contributions to the inner energy U:
Electronic energy                ...   -498.90096808 Eh
Zero point energy                ...      0.17718189 Eh     111.18 kcal/mol
Thermal vibrational correction   ...      0.00906379 Eh       5.69 kcal/mol
Thermal rotational correction    ...      0.00141627 Eh       0.89 kcal/mol
Thermal translational correction ...      0.00141627 Eh       0.89 kcal/mol
-----------------------------------------------------------------------
Total thermal energy                   -498.71188986 Eh

Summary of corrections to the electronic energy:
(perhaps to be used in another calculation)
Total thermal correction                  0.01189633 Eh       7.47 kcal/mol
Non-thermal (ZPE) correction              0.17718189 Eh     111.18 kcal/mol
-----------------------------------------------------------------------
Total correction                          0.18907822 Eh     118.65 kcal/mol

--------
ENTHALPY
--------

The enthalpy is H = U + kB*T
                kB is Boltzmann's constant
Total free energy                 ...   -498.71188986 Eh
Thermal Enthalpy correction       ...      0.00094421 Eh       0.59 kcal/mol
-----------------------------------------------------------------------
Total Enthalpy                    ...   -498.71094565 Eh

Note: Only C1 symmetry has been detected, increase convergence thresholds
      if your molecule has a higher symmetry. Symmetry factor of 1.0 is
      used for the rotational entropy correction.

Note: Rotational entropy computed according to Herzberg
Infrared and Raman Spectra, Chapter V,1, Van Nostrand Reinhold, 1945
Point Group:  C1, Symmetry Number:   1
Rotational constants in cm-1:     0.066905     0.039170     0.030635

Vibrational entropy computed according to the QRRHO of S. Grimme
Chem.Eur.J. 2012 18 9955

-------
ENTROPY
-------

The entropy contributions are T*S = T*(S(el)+S(vib)+S(rot)+S(trans))
     S(el)   - electronic entropy
     S(vib)  - vibrational entropy
     S(rot)  - rotational entropy
     S(trans)- translational entropy
The entropies will be listed as multiplied by the temperature to get
units of energy

Electronic entropy                ...      0.00000000 Eh      0.00 kcal/mol
Vibrational entropy               ...      0.01553511 Eh      9.75 kcal/mol
Rotational entropy                ...      0.01396260 Eh      8.76 kcal/mol
Translational entropy             ...      0.01930825 Eh     12.12 kcal/mol
-----------------------------------------------------------------------
Final entropy term                ...      0.04880596 Eh     30.63 kcal/mol

In case the symmetry of your molecule has not been determined correctly
or in case you have a reason to use a different symmetry number we print
out the resulting rotational entropy values for sn=1,12 :
 --------------------------------------------------------
|  sn= 1 | S(rot)=       0.01396260 Eh      8.76 kcal/mol|
|  sn= 2 | S(rot)=       0.01330814 Eh      8.35 kcal/mol|
|  sn= 3 | S(rot)=       0.01292531 Eh      8.11 kcal/mol|
|  sn= 4 | S(rot)=       0.01265369 Eh      7.94 kcal/mol|
|  sn= 5 | S(rot)=       0.01244300 Eh      7.81 kcal/mol|
|  sn= 6 | S(rot)=       0.01227085 Eh      7.70 kcal/mol|

                             ****ORCA TERMINATED NORMALLY****
TOTAL RUN TIME: 0 days 2 hours 2 minutes 20 seconds 390 msec
