                         Program Version 5.0.4 -  RELEASE  -
|  1> ! SARC-ZORA-TZVPP ZORA DLPNO-CCSD(T) Def2-TZVPP/C TightSCF TightPNO
|  2> %pal nprocs 8
|  3>     end
|  4> %Maxcore 15000.00
|  5> %basis
|  6>         NewGTO C "ma-ZORA-def2-TZVPP" end
|  7>         NewGTO N "ma-ZORA-def2-TZVPP" end
|  8>         NewGTO S "ma-ZORA-def2-TZVPP" end
|  9>         NewGTO O "ma-ZORA-def2-TZVPP" end
| 10>         NewGTO H "ma-ZORA-def2-TZVPP" end
| 11> 	NewGTO Cl "ma-ZORA-def2-TZVPP" end
| 12> 	NewGTO Br "ma-ZORA-def2-TZVPP" end
| 13> end
| 14> * xyzfile -1 1 1ABisopooh1brd1w-1100001000_1_129.xyz
| 15>
| 16>
| 17>                          ****END OF INPUT****

CARTESIAN COORDINATES (ANGSTROEM)
---------------------------------
  O      2.282321    1.894633    5.811446
  H      2.201809    1.986532    4.854595
  H      1.589444    1.244150    6.004462
  C      4.256085    2.329630    2.522155
  C      3.717212    1.261332    1.952643
  H      5.307434    2.555775    2.381772
  H      3.677068    3.001735    3.142100
  H      4.338472    0.609599    1.342979
  C      2.284081    0.799597    2.061779
  C      1.660370    0.718065    0.671892
  C      2.299129   -0.581059    2.759802
  O      1.630470    1.800672    2.857878
  H      0.645765    0.335724    0.744602
  H      1.651904    1.708520    0.213342
  H      2.245754    0.038883    0.046996
  O      0.218330    1.619478    2.840972
  H      0.051447    1.093501    3.659284
  O      1.120337   -1.334494    2.618352
  H      3.111570   -1.164074    2.310369
  H      2.541574   -0.415227    3.814954
  H      0.560200   -1.151882    3.395556
  Br    -0.300057   -0.317771    5.388845

 Total Charge           Charge          ....   -1
 Multiplicity           Mult            ....    1
 Number of Electrons    NEL             ....  110
 Basis Dimension        Dim             ....  557

ORBITAL ENERGIES
----------------

  NO   OCC          E(Eh)            E(eV)
   0   2.0000    -506.263187    -13776.1217
   1   2.0000     -67.064546     -1824.9191
   2   2.0000     -58.916163     -1603.1903
   3   2.0000     -58.916131     -1603.1894
   4   2.0000     -58.916118     -1603.1891
   5   2.0000     -20.527714      -558.5875
   6   2.0000     -20.512523      -558.1741
   7   2.0000     -20.450507      -556.4866
   8   2.0000     -20.431933      -555.9812
   9   2.0000     -11.193132      -304.5806
  10   2.0000     -11.165765      -303.8359
  11   2.0000     -11.147801      -303.3471
  12   2.0000     -11.136655      -303.0438
  13   2.0000     -11.117660      -302.5269
  14   2.0000      -9.934025      -270.3186
  15   2.0000      -7.282326      -198.1622
  16   2.0000      -7.282086      -198.1556
  17   2.0000      -7.281946      -198.1518
  18   2.0000      -2.883863       -78.4739
  19   2.0000      -2.883812       -78.4725
  20   2.0000      -2.883637       -78.4677
  21   2.0000      -2.883383       -78.4608
  22   2.0000      -2.883370       -78.4605
  23   2.0000      -1.353724       -36.8367
  24   2.0000      -1.229161       -33.4472
  25   2.0000      -1.188186       -32.3322
  26   2.0000      -1.103673       -30.0325
  27   2.0000      -0.963299       -26.2127
  28   2.0000      -0.899954       -24.4890
  29   2.0000      -0.818157       -22.2632
  30   2.0000      -0.792313       -21.5599
  31   2.0000      -0.718885       -19.5619
  32   2.0000      -0.650430       -17.6991
  33   2.0000      -0.593083       -16.1386
  34   2.0000      -0.568450       -15.4683
  35   2.0000      -0.559873       -15.2349
  36   2.0000      -0.551875       -15.0173
  37   2.0000      -0.539246       -14.6736
  38   2.0000      -0.507666       -13.8143
  39   2.0000      -0.474120       -12.9015
  40   2.0000      -0.461197       -12.5498
  41   2.0000      -0.445719       -12.1286
  42   2.0000      -0.437001       -11.8914
  43   2.0000      -0.432712       -11.7747
  44   2.0000      -0.427741       -11.6394
  45   2.0000      -0.393463       -10.7067
  46   2.0000      -0.368283       -10.0215
  47   2.0000      -0.359670        -9.7871
  48   2.0000      -0.348043        -9.4707
  49   2.0000      -0.340658        -9.2698
  50   2.0000      -0.303525        -8.2593
  51   2.0000      -0.266360        -7.2480
  52   2.0000      -0.214793        -5.8448
  53   2.0000      -0.210468        -5.7271
  54   2.0000      -0.208072        -5.6619
  55   0.0000       0.116616         3.1733
  56   0.0000       0.136921         3.7258
  57   0.0000       0.145362         3.9555
  58   0.0000       0.156886         4.2691
  59   0.0000       0.169298         4.6068

MULLIKEN ATOMIC CHARGES
-----------------------
   0 O :   -0.560988
   1 H :    0.283843
   2 H :    0.279020
   3 C :   -0.250818
   4 C :   -0.272321
   5 H :    0.070906
   6 H :    0.084941
   7 H :    0.051623
   8 C :    0.737035
   9 C :   -0.323445
  10 C :   -0.008661
  11 O :   -0.442547
  12 H :    0.124480
  13 H :    0.076333
  14 H :    0.047248
  15 O :   -0.204332
  16 H :    0.288237
  17 O :   -0.510566
  18 H :    0.031536
  19 H :    0.109735
  20 H :    0.284247
  21 Br:   -0.895504
Sum of atomic charges:   -1.0000000

LOEWDIN ATOMIC CHARGES
----------------------
   0 O :    0.107660
   1 H :   -0.101090
   2 H :   -0.104181
   3 C :   -0.007634
   4 C :   -0.071846
   5 H :    0.021101
   6 H :    0.044572
   7 H :    0.054290
   8 C :   -0.326914
   9 C :   -0.008345
  10 C :   -0.138065
  11 O :   -0.057005
  12 H :    0.059344
  13 H :    0.049718
  14 H :    0.044040
  15 O :    0.052985
  16 H :   -0.130518
  17 O :    0.073470
  18 H :    0.052809
  19 H :    0.070654
  20 H :   -0.122443
  21 Br:   -0.562601

  Mayer bond orders larger than 0.100000
B(  0-O ,  1-H ) :   0.9375 B(  0-O ,  2-H ) :   0.9287 B(  3-C ,  4-C ) :   1.9336
B(  3-C ,  5-H ) :   1.0375 B(  3-C ,  6-H ) :   1.0301 B(  4-C ,  7-H ) :   1.0676
B(  4-C ,  8-C ) :   0.7413 B(  7-H ,  8-C ) :  -0.1011 B(  8-C ,  9-C ) :   0.7753
B(  8-C , 10-C ) :   0.9167 B(  8-C , 11-O ) :   0.9847 B(  9-C , 12-H ) :   1.0197
B(  9-C , 13-H ) :   1.0479 B(  9-C , 14-H ) :   1.0149 B( 10-C , 17-O ) :   0.8999
B( 10-C , 18-H ) :   1.0386 B( 10-C , 19-H ) :   0.9535 B( 11-O , 15-O ) :   0.7260
B( 15-O , 16-H ) :   0.8684 B( 15-O , 21-Br) :  -0.1196 B( 16-H , 21-Br) :   0.1345
B( 17-O , 20-H ) :   0.8998

E(0)                                       ...  -3119.042045037
E(0)                                       ...  -3119.042045037
E(CORR)(strong-pairs)                      ...     -2.207209693
E(CORR)(weak-pairs)                        ...     -0.003071946
E(CORR)(corrected)                         ...     -2.210281640
E(TOT)                                     ...  -3121.252326677
E(CCSD(T))                                 ...  -3121.336670964
FINAL SINGLE POINT ENERGY     -3121.336670963933

DIPOLE MOMENT
-------------
                                X             Y             Z
Electronic contribution:    -25.12838     -11.16931      25.45073
Nuclear contribution   :     26.62405      11.27901     -27.49366
                        -----------------------------------------
Total Dipole Moment    :      1.49566       0.10970      -2.04294
                        -----------------------------------------
Magnitude (a.u.)       :      2.53429
Magnitude (Debye)      :      6.44165

Rotational constants in cm-1:     0.041130     0.015980     0.013700
Rotational constants in MHz :  1233.055204   479.071211   410.726821

                             ****ORCA TERMINATED NORMALLY****
TOTAL RUN TIME: 0 days 0 hours 53 minutes 40 seconds 25 msec
