                         Program Version 5.0.4 -  RELEASE  -
|  1> ! aug-cc-pVTZ wb97X-D3BJ FREQ
|  2> %pal nprocs 4
|  3>     end
|  4> %Maxcore 3000.00
|  5> %basis
|  6> 	NewGTO I "aug-cc-pVTZ-PP" end
|  7> 	NewECP I "SK-MCDHF-RSC" end
|  8> end
|  9> %geom
| 10>         maxIter 500
| 11> end
| 12> * xyzfile -1 1 1ABisopooh1brd1w-1100001000_1_129.xyz
| 13>
| 14>
| 15>                          ****END OF INPUT****

CARTESIAN COORDINATES (ANGSTROEM)
---------------------------------
  O      2.282321    1.894633    5.811446
  H      2.201809    1.986532    4.854595
  H      1.589444    1.244150    6.004462
  C      4.256085    2.329630    2.522155
  C      3.717212    1.261332    1.952643
  H      5.307434    2.555775    2.381772
  H      3.677068    3.001735    3.142100
  H      4.338472    0.609599    1.342979
  C      2.284081    0.799597    2.061779
  C      1.660370    0.718065    0.671892
  C      2.299129   -0.581059    2.759802
  O      1.630470    1.800672    2.857878
  H      0.645765    0.335724    0.744602
  H      1.651904    1.708520    0.213342
  H      2.245754    0.038883    0.046996
  O      0.218330    1.619478    2.840972
  H      0.051447    1.093501    3.659284
  O      1.120337   -1.334494    2.618352
  H      3.111570   -1.164074    2.310369
  H      2.541574   -0.415227    3.814954
  H      0.560200   -1.151882    3.395556
  Br    -0.300057   -0.317771    5.388845

 Total Charge           Charge          ....   -1
 Multiplicity           Mult            ....    1
 Number of Electrons    NEL             ....  110
 Basis Dimension        Dim             ....  749

ORBITAL ENERGIES
----------------

  NO   OCC          E(Eh)            E(eV)
   0   2.0000    -482.435715    -13127.7432
   1   2.0000     -62.309487     -1695.5273
   2   2.0000     -56.113464     -1526.9250
   3   2.0000     -56.113240     -1526.9189
   4   2.0000     -56.113081     -1526.9145
   5   2.0000     -19.155854      -521.2573
   6   2.0000     -19.133080      -520.6376
   7   2.0000     -19.080778      -519.2144
   8   2.0000     -19.060440      -518.6609
   9   2.0000     -10.227745      -278.3111
  10   2.0000     -10.199836      -277.5517
  11   2.0000     -10.184136      -277.1244
  12   2.0000     -10.171901      -276.7915
  13   2.0000     -10.156198      -276.3642
  14   2.0000      -8.572807      -233.2779
  15   2.0000      -6.395058      -174.0184
  16   2.0000      -6.394470      -174.0024
  17   2.0000      -6.394174      -173.9943
  18   2.0000      -2.518816       -68.5405
  19   2.0000      -2.518701       -68.5373
  20   2.0000      -2.518487       -68.5315
  21   2.0000      -2.517957       -68.5171
  22   2.0000      -2.517943       -68.5167
  23   2.0000      -1.134565       -30.8731
  24   2.0000      -1.022687       -27.8287
  25   2.0000      -0.983404       -26.7598
  26   2.0000      -0.924536       -25.1579
  27   2.0000      -0.817235       -22.2381
  28   2.0000      -0.769348       -20.9350
  29   2.0000      -0.703647       -19.1472
  30   2.0000      -0.667472       -18.1628
  31   2.0000      -0.624937       -17.0054
  32   2.0000      -0.574578       -15.6350
  33   2.0000      -0.516596       -14.0573
  34   2.0000      -0.502858       -13.6835
  35   2.0000      -0.490479       -13.3466
  36   2.0000      -0.486619       -13.2416
  37   2.0000      -0.470903       -12.8139
  38   2.0000      -0.452662       -12.3176
  39   2.0000      -0.421074       -11.4580
  40   2.0000      -0.401746       -10.9321
  41   2.0000      -0.391667       -10.6578
  42   2.0000      -0.384837       -10.4720
  43   2.0000      -0.379894       -10.3374
  44   2.0000      -0.356520        -9.7014
  45   2.0000      -0.344062        -9.3624
  46   2.0000      -0.316653        -8.6166
  47   2.0000      -0.291591        -7.9346
  48   2.0000      -0.278163        -7.5692
  49   2.0000      -0.275172        -7.4878
  50   2.0000      -0.267706        -7.2847
  51   2.0000      -0.235549        -6.4096
  52   2.0000      -0.201133        -5.4731
  53   2.0000      -0.198075        -5.3899
  54   2.0000      -0.196297        -5.3415
  55   0.0000       0.096206         2.6179
  56   0.0000       0.106467         2.8971
  57   0.0000       0.111767         3.0413
  58   0.0000       0.123497         3.3605
  59   0.0000       0.128807         3.5050

MULLIKEN ATOMIC CHARGES
-----------------------
   0 O :   -0.562185
   1 H :    0.347725
   2 H :    0.218142
   3 C :   -1.289422
   4 C :   -0.300724
   5 H :    0.423709
   6 H :    0.180656
   7 H :    0.302223
   8 C :    1.988289
   9 C :   -1.277384
  10 C :   -0.383736
  11 O :   -0.492015
  12 H :    0.277638
  13 H :    0.278247
  14 H :    0.242109
  15 O :   -0.549673
  16 H :    0.294121
  17 O :   -0.713577
  18 H :    0.267413
  19 H :    0.406033
  20 H :    0.228148
  21 Br:   -0.885737
Sum of atomic charges:   -1.0000000

LOEWDIN ATOMIC CHARGES
----------------------
   0 O :    1.025538
   1 H :   -0.667929
   2 H :   -0.719742
   3 C :    0.516001
   4 C :    0.143498
   5 H :   -0.224686
   6 H :   -0.235653
   7 H :   -0.179013
   8 C :   -0.645489
   9 C :    0.544898
  10 C :   -0.021388
  11 O :    0.401600
  12 H :   -0.196625
  13 H :   -0.162475
  14 H :   -0.164853
  15 O :    0.596295
  16 H :   -0.856466
  17 O :    0.821819
  18 H :   -0.171413
  19 H :   -0.175427
  20 H :   -0.788040
  21 Br:    0.159550

  Mayer bond orders larger than 0.100000
B(  0-O ,  1-H ) :   0.8094 B(  0-O ,  2-H ) :   0.9803 B(  3-C ,  4-C ) :   1.2009
B(  3-C ,  5-H ) :   0.6526 B(  3-C ,  6-H ) :   1.2066 B(  4-C ,  7-H ) :   0.9752
B(  4-C ,  8-C ) :   0.4343 B(  8-C ,  9-C ) :   0.3889 B(  8-C , 10-C ) :   0.8752
B(  8-C , 11-O ) :   0.2366 B(  8-C , 15-O ) :  -0.1956 B(  9-C , 10-C ) :   0.1598
B(  9-C , 12-H ) :   0.9664 B(  9-C , 13-H ) :   1.0067 B(  9-C , 14-H ) :   1.0224
B( 10-C , 11-O ) :   0.1099 B( 10-C , 17-O ) :   0.7844 B( 10-C , 18-H ) :   1.0107
B( 10-C , 19-H ) :   0.8921 B( 11-O , 15-O ) :   0.6934 B( 15-O , 16-H ) :   0.7839
B( 16-H , 21-Br) :   0.1646 B( 17-O , 20-H ) :   0.8945 B( 20-H , 21-Br) :   0.1287

Dispersion correction           -0.036017018
FINAL SINGLE POINT ENERGY     -3073.140745767263

DIPOLE MOMENT
-------------
                                X             Y             Z
Electronic contribution:    -25.22030     -11.19157      25.53481
Nuclear contribution   :     26.62405      11.27901     -27.49366
                        -----------------------------------------
Total Dipole Moment    :      1.40374       0.08743      -1.95885
                        -----------------------------------------
Magnitude (a.u.)       :      2.41148
Magnitude (Debye)      :      6.12950

Dispersion correction in the Hessian             ... done   (      1.8 sec)

VIBRATIONAL FREQUENCIES
-----------------------

Scaling factor for frequencies =  1.000000000  (already applied!)

   0:         0.00 cm**-1
   1:         0.00 cm**-1
   2:         0.00 cm**-1
   3:         0.00 cm**-1
   4:         0.00 cm**-1
   5:         0.00 cm**-1
   6:        30.85 cm**-1
   7:        54.03 cm**-1
   8:        82.25 cm**-1
   9:        93.47 cm**-1
  10:        97.42 cm**-1
  11:       106.40 cm**-1
  12:       145.16 cm**-1
  13:       170.56 cm**-1
  14:       215.34 cm**-1
  15:       218.01 cm**-1
  16:       241.95 cm**-1
  17:       258.40 cm**-1
  18:       320.30 cm**-1
  19:       326.81 cm**-1
  20:       384.90 cm**-1
  21:       393.87 cm**-1
  22:       403.88 cm**-1
  23:       466.67 cm**-1
  24:       487.36 cm**-1
  25:       557.28 cm**-1
  26:       599.81 cm**-1
  27:       603.57 cm**-1
  28:       687.33 cm**-1
  29:       733.72 cm**-1
  30:       782.77 cm**-1
  31:       884.72 cm**-1
  32:       953.83 cm**-1
  33:       977.00 cm**-1
  34:       977.63 cm**-1
  35:      1034.21 cm**-1
  36:      1050.90 cm**-1
  37:      1076.82 cm**-1
  38:      1122.87 cm**-1
  39:      1183.79 cm**-1
  40:      1211.27 cm**-1
  41:      1256.44 cm**-1
  42:      1309.51 cm**-1
  43:      1347.03 cm**-1
  44:      1399.92 cm**-1
  45:      1427.60 cm**-1
  46:      1455.39 cm**-1
  47:      1457.05 cm**-1
  48:      1484.22 cm**-1
  49:      1488.61 cm**-1
  50:      1502.73 cm**-1
  51:      1511.04 cm**-1
  52:      1692.24 cm**-1
  53:      1741.21 cm**-1
  54:      3029.54 cm**-1
  55:      3064.54 cm**-1
  56:      3086.82 cm**-1
  57:      3131.51 cm**-1
  58:      3155.25 cm**-1
  59:      3173.57 cm**-1
  60:      3186.84 cm**-1
  61:      3256.04 cm**-1
  62:      3383.52 cm**-1
  63:      3568.21 cm**-1
  64:      3718.65 cm**-1
  65:      3816.06 cm**-1

IR SPECTRUM
-----------

 Mode   freq       eps      Int      T**2         TX        TY        TZ
       cm**-1   L/(mol*cm) km/mol    a.u.
----------------------------------------------------------------------------
  6:     30.85   0.000288    1.46  0.002914  (-0.016417  0.051307  0.003526)
  7:     54.03   0.000347    1.75  0.002005  (-0.016492  0.003381  0.041488)
  8:     82.25   0.000110    0.55  0.000416  ( 0.016996  0.011190  0.001259)
  9:     93.47   0.000271    1.37  0.000904  (-0.024741 -0.007385  0.015421)
 10:     97.42   0.001535    7.76  0.004917  (-0.041768 -0.010498  0.055340)
 11:    106.40   0.000012    0.06  0.000036  (-0.003967  0.004421  0.000851)
 12:    145.16   0.000509    2.57  0.001094  ( 0.023468  0.017544  0.015333)
 13:    170.56   0.000122    0.62  0.000223  (-0.003264 -0.013150  0.006274)
 14:    215.34   0.001025    5.18  0.001485  ( 0.001249  0.012790 -0.036328)
 15:    218.01   0.000636    3.22  0.000911  ( 0.005494 -0.000379 -0.029671)
 16:    241.95   0.000432    2.18  0.000557  ( 0.004128 -0.019209  0.013083)
 17:    258.40   0.000269    1.36  0.000325  ( 0.012538  0.012247 -0.004180)
 18:    320.30   0.000641    3.24  0.000625  ( 0.014478 -0.019091 -0.007119)
 19:    326.81   0.000021    0.10  0.000020  (-0.003723  0.001472 -0.001934)
 20:    384.90   0.008092   40.89  0.006560  ( 0.019423  0.036049 -0.069882)
 21:    393.87   0.002136   10.80  0.001693  (-0.004177  0.008503  0.040036)
 22:    403.88   0.000216    1.09  0.000167  ( 0.006049 -0.010845  0.003509)
 23:    466.67   0.000323    1.63  0.000216  ( 0.003003 -0.010925  0.009352)
 24:    487.36   0.001043    5.27  0.000668  (-0.012109  0.009655 -0.020689)
 25:    557.28   0.004165   21.05  0.002333  (-0.037465  0.011503  0.028224)
 26:    599.81   0.025291  127.81  0.013158  ( 0.052902 -0.101762  0.002026)
 27:    603.57   0.001301    6.58  0.000673  ( 0.016554  0.013159 -0.015024)
 28:    687.33   0.003886   19.64  0.001764  ( 0.010527 -0.027250  0.030184)
 29:    733.72   0.007479   37.80  0.003181  ( 0.005593 -0.035388 -0.043559)
 30:    782.77   0.001280    6.47  0.000510  (-0.002373  0.021097  0.007725)
 31:    884.72   0.000786    3.97  0.000277  (-0.004130  0.014643  0.006772)
 32:    953.83   0.001361    6.88  0.000445  ( 0.013171 -0.013543 -0.009394)
 33:    977.00   0.002191   11.07  0.000700  ( 0.018397 -0.010844  0.015615)
 34:    977.63   0.007257   36.68  0.002317  ( 0.004642  0.027136 -0.039480)
 35:   1034.21   0.000206    1.04  0.000062  (-0.004362  0.005240 -0.003955)
 36:   1050.90   0.001905    9.62  0.000566  (-0.007755  0.010582 -0.019836)
 37:   1076.82   0.001659    8.38  0.000481  ( 0.015288  0.005586 -0.014693)
 38:   1122.87   0.019251   97.29  0.005350  ( 0.052639  0.050314 -0.006908)
 39:   1183.79   0.006260   31.64  0.001650  (-0.002077  0.023552  0.033034)
 40:   1211.27   0.001276    6.45  0.000329  ( 0.016993 -0.002344  0.005883)
 41:   1256.44   0.003044   15.38  0.000756  (-0.022842  0.011905  0.009621)
 42:   1309.51   0.001743    8.81  0.000415  ( 0.017341  0.007730 -0.007411)
 43:   1347.03   0.000792    4.00  0.000184  (-0.011181 -0.005042  0.005757)
 44:   1399.92   0.001991   10.06  0.000444  ( 0.006838  0.000642  0.019918)
 45:   1427.60   0.002682   13.55  0.000586  (-0.010251 -0.005131  0.021328)
 46:   1455.39   0.002765   13.97  0.000593  (-0.000792 -0.012178 -0.021071)
 47:   1457.05   0.002286   11.55  0.000490  (-0.009574 -0.017487 -0.009600)
 48:   1484.22   0.000136    0.69  0.000029  (-0.001715  0.004982  0.000939)
 49:   1488.61   0.000981    4.96  0.000206  (-0.013835  0.000371  0.003757)
 50:   1502.73   0.001502    7.59  0.000312  ( 0.015583 -0.008023 -0.002195)
 51:   1511.04   0.004610   23.30  0.000952  (-0.023338 -0.018333  0.008450)
 52:   1692.24   0.021360  107.95  0.003939  ( 0.042363  0.033607  0.031858)
 53:   1741.21   0.003154   15.94  0.000565  ( 0.017398  0.016199  0.000366)
 54:   3029.54   0.012463   62.99  0.001284  (-0.033626  0.010339  0.006798)
 55:   3064.54   0.007213   36.45  0.000734  ( 0.006630  0.000095 -0.026278)
 56:   3086.82   0.003730   18.85  0.000377  (-0.006103  0.006115  0.017391)
 57:   3131.51   0.004638   23.44  0.000462  ( 0.009286 -0.019384  0.000461)
 58:   3155.25   0.003383   17.10  0.000335  ( 0.001157  0.015290  0.009976)
 59:   3173.57   0.005001   25.27  0.000492  ( 0.020302  0.000144 -0.008918)
 60:   3186.84   0.001248    6.30  0.000122  ( 0.009540  0.005304 -0.001735)
 61:   3256.04   0.002101   10.62  0.000201  ( 0.013306  0.000883 -0.004856)
 62:   3383.52   0.151723  766.75  0.013993  ( 0.041005  0.066550 -0.088787)
 63:   3568.21   0.168880  853.45  0.014770  ( 0.067701 -0.007702 -0.100633)
 64:   3718.65   0.055281  279.37  0.004639  (-0.052448 -0.043365 -0.002789)
 65:   3816.06   0.043332  218.98  0.003544  (-0.015130 -0.011435  0.056425)

--------------------------
THERMOCHEMISTRY AT 298.15K
--------------------------

Temperature         ... 298.15 K
Pressure            ... 1.00 atm
Total Mass          ... 216.05 AMU

Throughout the following assumptions are being made:
  (1) The electronic state is orbitally nondegenerate
  (2) There are no thermally accessible electronically excited states
  (3) Hindered rotations indicated by low frequency modes are not
      treated as such but are treated as vibrations and this may
      cause some error
  (4) All equations used are the standard statistical mechanics
      equations for an ideal gas
  (5) All vibrations are strictly harmonic

freq.      30.85  E(vib)   ...       0.55
freq.      54.03  E(vib)   ...       0.52
freq.      82.25  E(vib)   ...       0.48
freq.      93.47  E(vib)   ...       0.47
freq.      97.42  E(vib)   ...       0.46
freq.     106.40  E(vib)   ...       0.45
freq.     145.16  E(vib)   ...       0.41
freq.     170.56  E(vib)   ...       0.38
freq.     215.34  E(vib)   ...       0.34
freq.     218.01  E(vib)   ...       0.33
freq.     241.95  E(vib)   ...       0.31
freq.     258.40  E(vib)   ...       0.30
freq.     320.30  E(vib)   ...       0.25
freq.     326.81  E(vib)   ...       0.24
freq.     384.90  E(vib)   ...       0.20
freq.     393.87  E(vib)   ...       0.20
freq.     403.88  E(vib)   ...       0.19
freq.     466.67  E(vib)   ...       0.16
freq.     487.36  E(vib)   ...       0.15
freq.     557.28  E(vib)   ...       0.12
freq.     599.81  E(vib)   ...       0.10
freq.     603.57  E(vib)   ...       0.10
freq.     687.33  E(vib)   ...       0.07
freq.     733.72  E(vib)   ...       0.06
freq.     782.77  E(vib)   ...       0.05
freq.     884.72  E(vib)   ...       0.04
freq.     953.83  E(vib)   ...       0.03
freq.     977.00  E(vib)   ...       0.03
freq.     977.63  E(vib)   ...       0.03
freq.    1034.21  E(vib)   ...       0.02
freq.    1050.90  E(vib)   ...       0.02
freq.    1076.82  E(vib)   ...       0.02
freq.    1122.87  E(vib)   ...       0.01
freq.    1183.79  E(vib)   ...       0.01
freq.    1211.27  E(vib)   ...       0.01
freq.    1256.44  E(vib)   ...       0.01
freq.    1309.51  E(vib)   ...       0.01
freq.    1347.03  E(vib)   ...       0.01
freq.    1399.92  E(vib)   ...       0.00
freq.    1427.60  E(vib)   ...       0.00
freq.    1455.39  E(vib)   ...       0.00
freq.    1457.05  E(vib)   ...       0.00
freq.    1484.22  E(vib)   ...       0.00
freq.    1488.61  E(vib)   ...       0.00
freq.    1502.73  E(vib)   ...       0.00
freq.    1511.04  E(vib)   ...       0.00
freq.    1692.24  E(vib)   ...       0.00
freq.    1741.21  E(vib)   ...       0.00
freq.    3029.54  E(vib)   ...       0.00
freq.    3064.54  E(vib)   ...       0.00
freq.    3086.82  E(vib)   ...       0.00
freq.    3131.51  E(vib)   ...       0.00
freq.    3155.25  E(vib)   ...       0.00
freq.    3173.57  E(vib)   ...       0.00
freq.    3186.84  E(vib)   ...       0.00
freq.    3256.04  E(vib)   ...       0.00
freq.    3383.52  E(vib)   ...       0.00
freq.    3568.21  E(vib)   ...       0.00
freq.    3718.65  E(vib)   ...       0.00
freq.    3816.06  E(vib)   ...       0.00

------------
INNER ENERGY
------------

The inner energy is: U= E(el) + E(ZPE) + E(vib) + E(rot) + E(trans)
    E(el)   - is the total energy from the electronic structure calculation
              = E(kin-el) + E(nuc-el) + E(el-el) + E(nuc-nuc)
    E(ZPE)  - the the zero temperature vibrational energy from the frequency calculation
    E(vib)  - the the finite temperature correction to E(ZPE) due to population
              of excited vibrational states
    E(rot)  - is the rotational thermal energy
    E(trans)- is the translational thermal energy

Summary of contributions to the inner energy U:
Electronic energy                ...  -3073.14074577 Eh
Zero point energy                ...      0.17673719 Eh     110.90 kcal/mol
Thermal vibrational correction   ...      0.01141146 Eh       7.16 kcal/mol
Thermal rotational correction    ...      0.00141627 Eh       0.89 kcal/mol
Thermal translational correction ...      0.00141627 Eh       0.89 kcal/mol
-----------------------------------------------------------------------
Total thermal energy                  -3072.94976457 Eh

Summary of corrections to the electronic energy:
(perhaps to be used in another calculation)
Total thermal correction                  0.01424401 Eh       8.94 kcal/mol
Non-thermal (ZPE) correction              0.17673719 Eh     110.90 kcal/mol
-----------------------------------------------------------------------
Total correction                          0.19098120 Eh     119.84 kcal/mol

--------
ENTHALPY
--------

The enthalpy is H = U + kB*T
                kB is Boltzmann's constant
Total free energy                 ...  -3072.94976457 Eh
Thermal Enthalpy correction       ...      0.00094421 Eh       0.59 kcal/mol
-----------------------------------------------------------------------
Total Enthalpy                    ...  -3072.94882036 Eh

Note: Only C1 symmetry has been detected, increase convergence thresholds
      if your molecule has a higher symmetry. Symmetry factor of 1.0 is
      used for the rotational entropy correction.

Note: Rotational entropy computed according to Herzberg
Infrared and Raman Spectra, Chapter V,1, Van Nostrand Reinhold, 1945
Point Group:  C1, Symmetry Number:   1
Rotational constants in cm-1:     0.041130     0.015980     0.013700

Vibrational entropy computed according to the QRRHO of S. Grimme
Chem.Eur.J. 2012 18 9955

-------
ENTROPY
-------

The entropy contributions are T*S = T*(S(el)+S(vib)+S(rot)+S(trans))
     S(el)   - electronic entropy
     S(vib)  - vibrational entropy
     S(rot)  - rotational entropy
     S(trans)- translational entropy
The entropies will be listed as multiplied by the temperature to get
units of energy

Electronic entropy                ...      0.00000000 Eh      0.00 kcal/mol
Vibrational entropy               ...      0.02052763 Eh     12.88 kcal/mol
Rotational entropy                ...      0.01499544 Eh      9.41 kcal/mol
Translational entropy             ...      0.01996223 Eh     12.53 kcal/mol
-----------------------------------------------------------------------
Final entropy term                ...      0.05548530 Eh     34.82 kcal/mol

In case the symmetry of your molecule has not been determined correctly
or in case you have a reason to use a different symmetry number we print
out the resulting rotational entropy values for sn=1,12 :
 --------------------------------------------------------
|  sn= 1 | S(rot)=       0.01499544 Eh      9.41 kcal/mol|
|  sn= 2 | S(rot)=       0.01434098 Eh      9.00 kcal/mol|
|  sn= 3 | S(rot)=       0.01395815 Eh      8.76 kcal/mol|

                             ****ORCA TERMINATED NORMALLY****
TOTAL RUN TIME: 0 days 2 hours 35 minutes 8 seconds 941 msec
