                         Program Version 5.0.4 -  RELEASE  -
|  1> ! SARC-ZORA-TZVPP ZORA DLPNO-CCSD(T) Def2-TZVPP/C TightSCF TightPNO
|  2> %pal nprocs 8
|  3>     end
|  4> %Maxcore 15000.00
|  5> %basis
|  6>         NewGTO C "ma-ZORA-def2-TZVPP" end
|  7>         NewGTO N "ma-ZORA-def2-TZVPP" end
|  8>         NewGTO S "ma-ZORA-def2-TZVPP" end
|  9>         NewGTO O "ma-ZORA-def2-TZVPP" end
| 10>         NewGTO H "ma-ZORA-def2-TZVPP" end
| 11> 	NewGTO Cl "ma-ZORA-def2-TZVPP" end
| 12> 	NewGTO Br "ma-ZORA-def2-TZVPP" end
| 13> end
| 14> * xyzfile -1 1 1brd-1000_1_0.xyz
| 15>
| 16>
| 17>                          ****END OF INPUT****

CARTESIAN COORDINATES (ANGSTROEM)
---------------------------------
  Br     3.810943    1.217958   -6.863413

 Total Charge           Charge          ....   -1
 Multiplicity           Mult            ....    1
 Number of Electrons    NEL             ....   36
 Basis Dimension        Dim             ....   65

ORBITAL ENERGIES
----------------

  NO   OCC          E(Eh)            E(eV)
   0   2.0000    -506.197617    -13774.3374
   1   2.0000     -66.998193     -1823.1135
   2   2.0000     -58.849810     -1601.3848
   3   2.0000     -58.849810     -1601.3848
   4   2.0000     -58.849810     -1601.3848
   5   2.0000      -9.867340      -268.5040
   6   2.0000      -7.215305      -196.3384
   7   2.0000      -7.215305      -196.3384
   8   2.0000      -7.215305      -196.3384
   9   2.0000      -2.816916       -76.6522
  10   2.0000      -2.816916       -76.6522
  11   2.0000      -2.816916       -76.6522
  12   2.0000      -2.816916       -76.6522
  13   2.0000      -2.816916       -76.6522
  14   2.0000      -0.712796       -19.3962
  15   2.0000      -0.137690        -3.7467
  16   2.0000      -0.137690        -3.7467
  17   2.0000      -0.137690        -3.7467
  18   0.0000       0.244006         6.6397
  19   0.0000       0.244006         6.6397
  20   0.0000       0.244006         6.6397
  21   0.0000       0.325780         8.8649
  22   0.0000       0.710043        19.3212

MULLIKEN ATOMIC CHARGES
-----------------------
   0 Br:   -1.000000
Sum of atomic charges:   -1.0000000

LOEWDIN ATOMIC CHARGES
----------------------
   0 Br:   -1.000000

E(0)                                       ...  -2622.682850322
E(0)                                       ...  -2622.682850322
E(CORR)(strong-pairs)                      ...     -0.306067455
E(CORR)(weak-pairs)                        ...     -0.000215426
E(CORR)(corrected)                         ...     -0.306282881
E(TOT)                                     ...  -2622.989133203
E(CCSD(T))                                 ...  -2622.997546798
FINAL SINGLE POINT ENERGY     -2622.997546798129

DIPOLE MOMENT
-------------
                                X             Y             Z
Electronic contribution:     -0.00000       0.00000      -0.00000
Nuclear contribution   :     -0.00000       0.00000       0.00000
                        -----------------------------------------
Total Dipole Moment    :     -0.00000       0.00000      -0.00000
                        -----------------------------------------
Magnitude (a.u.)       :      0.00000
Magnitude (Debye)      :      0.00000

Rotational constants in cm-1:     0.000000     0.000000     0.000000
Rotational constants in MHz :     0.000000     0.000000     0.000000

                             ****ORCA TERMINATED NORMALLY****
TOTAL RUN TIME: 0 days 0 hours 0 minutes 15 seconds 560 msec
