                         Program Version 5.0.4 -  RELEASE  -
|  1> ! aug-cc-pVTZ wb97X-D3BJ FREQ
|  2> %pal nprocs 4
|  3>     end
|  4> %Maxcore 3000.00
|  5> %basis
|  6> 	NewGTO I "aug-cc-pVTZ-PP" end
|  7> 	NewECP I "SK-MCDHF-RSC" end
|  8> end
|  9> %geom
| 10>         maxIter 500
| 11> end
| 12> * xyzfile -1 1 1brd-1000_1_0.xyz
| 13>
| 14>
| 15>                          ****END OF INPUT****

CARTESIAN COORDINATES (ANGSTROEM)
---------------------------------
  Br     3.810943    1.217958   -6.863413

 Total Charge           Charge          ....   -1
 Multiplicity           Mult            ....    1
 Number of Electrons    NEL             ....   36
 Basis Dimension        Dim             ....   59

ORBITAL ENERGIES
----------------

  NO   OCC          E(Eh)            E(eV)
   0   2.0000    -482.364588    -13125.8077
   1   2.0000     -62.238167     -1693.5866
   2   2.0000     -56.041685     -1524.9718
   3   2.0000     -56.041685     -1524.9718
   4   2.0000     -56.041685     -1524.9718
   5   2.0000      -8.502206      -231.3568
   6   2.0000      -6.323931      -172.0829
   7   2.0000      -6.323931      -172.0829
   8   2.0000      -6.323931      -172.0829
   9   2.0000      -2.447721       -66.6059
  10   2.0000      -2.447721       -66.6059
  11   2.0000      -2.447721       -66.6059
  12   2.0000      -2.447721       -66.6059
  13   2.0000      -2.447721       -66.6059
  14   2.0000      -0.587215       -15.9789
  15   2.0000      -0.125871        -3.4251
  16   2.0000      -0.125871        -3.4251
  17   2.0000      -0.125871        -3.4251
  18   0.0000       0.243376         6.6226
  19   0.0000       0.243376         6.6226
  20   0.0000       0.243376         6.6226
  21   0.0000       0.261421         7.1136
  22   0.0000       0.459072        12.4920

MULLIKEN ATOMIC CHARGES
-----------------------
   0 Br:   -1.000000
Sum of atomic charges:   -1.0000000

LOEWDIN ATOMIC CHARGES
----------------------
   0 Br:   -1.000000

Dispersion correction            0.000000000
FINAL SINGLE POINT ENERGY     -2574.198352352321

DIPOLE MOMENT
-------------
                                X             Y             Z
Electronic contribution:     -0.00000      -0.00000      -0.00000
Nuclear contribution   :     -0.00000       0.00000       0.00000
                        -----------------------------------------
Total Dipole Moment    :     -0.00000      -0.00000      -0.00000
                        -----------------------------------------
Magnitude (a.u.)       :      0.00000
Magnitude (Debye)      :      0.00000

Dispersion correction in the Hessian             ... done   (      0.1 sec)

VIBRATIONAL FREQUENCIES
-----------------------

Scaling factor for frequencies =  1.000000000  (already applied!)

   0:         0.00 cm**-1
   1:         0.00 cm**-1
   2:         0.00 cm**-1

IR SPECTRUM
-----------

 Mode   freq       eps      Int      T**2         TX        TY        TZ
       cm**-1   L/(mol*cm) km/mol    a.u.
----------------------------------------------------------------------------

--------------------------
THERMOCHEMISTRY AT 298.15K
--------------------------

Temperature         ... 298.15 K
Pressure            ... 1.00 atm
Total Mass          ... 79.90 AMU
The molecule is recognized as being linear

Throughout the following assumptions are being made:
  (1) The electronic state is orbitally nondegenerate
  (2) There are no thermally accessible electronically excited states
  (3) Hindered rotations indicated by low frequency modes are not
      treated as such but are treated as vibrations and this may
      cause some error
  (4) All equations used are the standard statistical mechanics
      equations for an ideal gas
  (5) All vibrations are strictly harmonic

------------
INNER ENERGY
------------

The inner energy is: U= E(el) + E(ZPE) + E(vib) + E(rot) + E(trans)
    E(el)   - is the total energy from the electronic structure calculation
              = E(kin-el) + E(nuc-el) + E(el-el) + E(nuc-nuc)
    E(ZPE)  - the the zero temperature vibrational energy from the frequency calculation
    E(vib)  - the the finite temperature correction to E(ZPE) due to population
              of excited vibrational states
    E(rot)  - is the rotational thermal energy
    E(trans)- is the translational thermal energy

Summary of contributions to the inner energy U:
Electronic energy                ...  -2574.19835235 Eh
Zero point energy                ...      0.00000000 Eh       0.00 kcal/mol
Thermal vibrational correction   ...      0.00000000 Eh       0.00 kcal/mol
Thermal rotational correction    ...      0.00000000 Eh       0.00 kcal/mol
Thermal translational correction ...      0.00141627 Eh       0.89 kcal/mol
-----------------------------------------------------------------------
Total thermal energy                  -2574.19693608 Eh

Summary of corrections to the electronic energy:
(perhaps to be used in another calculation)
Total thermal correction                  0.00141627 Eh       0.89 kcal/mol
Non-thermal (ZPE) correction              0.00000000 Eh       0.00 kcal/mol
-----------------------------------------------------------------------
Total correction                          0.00141627 Eh       0.89 kcal/mol

--------
ENTHALPY
--------

The enthalpy is H = U + kB*T
                kB is Boltzmann's constant
Total free energy                 ...  -2574.19693608 Eh
Thermal Enthalpy correction       ...      0.00094421 Eh       0.59 kcal/mol
-----------------------------------------------------------------------
Total Enthalpy                    ...  -2574.19599187 Eh

Note: Rotational entropy computed according to Herzberg
Infrared and Raman Spectra, Chapter V,1, Van Nostrand Reinhold, 1945
Point Group:  Kh, Symmetry Number:   1
Rotational constants in cm-1:     0.000000     0.000000     0.000000

Vibrational entropy computed according to the QRRHO of S. Grimme
Chem.Eur.J. 2012 18 9955

-------
ENTROPY
-------

The entropy contributions are T*S = T*(S(el)+S(vib)+S(rot)+S(trans))
     S(el)   - electronic entropy
     S(vib)  - vibrational entropy
     S(rot)  - rotational entropy
     S(trans)- translational entropy
The entropies will be listed as multiplied by the temperature to get
units of energy

Electronic entropy                ...      0.00000000 Eh      0.00 kcal/mol
Vibrational entropy               ...      0.00000000 Eh      0.00 kcal/mol
Rotational entropy                ...      0.00000000 Eh      0.00 kcal/mol
Translational entropy             ...      0.01855344 Eh     11.64 kcal/mol
-----------------------------------------------------------------------
Final entropy term                ...      0.01855344 Eh     11.64 kcal/mol

-------------------
GIBBS FREE ENERGY
-------------------

The Gibbs free energy is G = H - T*S

Total enthalpy                    ...  -2574.19599187 Eh
Total entropy correction          ...     -0.01855344 Eh    -11.64 kcal/mol
-----------------------------------------------------------------------
Final Gibbs free energy         ...  -2574.21454531 Eh

For completeness - the Gibbs free energy minus the electronic energy
G-E(el)                           ...     -0.01619296 Eh    -10.16 kcal/mol

                             ****ORCA TERMINATED NORMALLY****
TOTAL RUN TIME: 0 days 0 hours 0 minutes 14 seconds 165 msec
